# vtk DataFile Version 3.0
quad8
ASCII
DATASET UNSTRUCTURED_GRID
POINTS 13 float
0 0 0    
1 0 0    
1 1 0    
0 1 0    
2 0 0        
2 1 0    
0.5 0 0      
1.1 0.6 0    
0.5 1 0    
0 0.5 0    
1.5 0 0    
2 0.5 0    
1.5 1 0

CELLS 2 18
8 0 1 2 3 6 7 8 9
8 1 4 5 2 10 11 12 7

CELL_TYPES 2
23 23

CELL_DATA 2
SCALARS A int
LOOKUP_TABLE A_table
1 2

CELL_DATA 2
SCALARS flux float
LOOKUP_TABLE flux_table
  1.0 
  2.0
