# vtk DataFile Version 3.0
tri
ASCII
DATASET UNSTRUCTURED_GRID
POINTS 4 float
0 0 0
1 0 0
1 1 0
0 1 0

CELLS 2 8
3 0 1 2
3 2 3 0

CELL_TYPES 2
5 5

CELL_DATA 2
SCALARS A int
LOOKUP_TABLE A_table
1 2

CELL_DATA 2
SCALARS flux float
LOOKUP_TABLE flux_table
1.0 2.0
