# vtk DataFile Version 3.0
tri6_quad8
ASCII
DATASET UNSTRUCTURED_GRID
POINTS 11 float
0 0 0
1 0 0
1 1 0
0 1 0
2 0 0
0.5 0 0
0.7 0.6 0
0.5 1 0
0 0.5 0
1.5 0 0
1.5 0.5 0

CELLS 2 16
8 0 1 2 3 5 6 7 8
6 1 4 2 9 10 6

CELL_TYPES 2
23 22

CELL_DATA 2
SCALARS A int
LOOKUP_TABLE A_table
1 2

CELL_DATA 2
SCALARS flux float
LOOKUP_TABLE flux_table
1.0 2.0
