# vtk DataFile Version 3.0
tri6
ASCII
DATASET UNSTRUCTURED_GRID
POINTS 9 float
0 0 0    
1 0 0    
0 1 0    
0.5 0 0    
0.7 0.5 0    
0 0.5 0    
1 1 0        
1 0.5 0    
0.5 1 0

CELLS 2 14
6 0 1 2 3 4 5
6 1 6 2 7 8 4

CELL_TYPES 2
22 22

CELL_DATA 2
SCALARS A int
LOOKUP_TABLE A_table
1 2

CELL_DATA 2
SCALARS flux float
LOOKUP_TABLE flux_table
1.0 2.0
