# vtk DataFile Version 3.0
tri_quad
ASCII
DATASET UNSTRUCTURED_GRID
POINTS 5 float
0 0 0
1 0 0
1 1 0
0 1 0
2 0 0

CELLS 2 9
4 0 1 2 3
3 1 4 2

CELL_TYPES 2
9 5

CELL_DATA 2
SCALARS A int
LOOKUP_TABLE A_table
1 2

CELL_DATA 2
SCALARS flux float
LOOKUP_TABLE flux_table
1.0 2.0
